50
	Energy:      -7.5389702
C         -6.38188       -1.19572       -0.06961
C         -5.36476       -0.06568       -0.06592
H         -6.36002       -1.74633        0.87628
H         -6.18193       -1.90088       -0.88271
H         -7.39163       -0.79641       -0.20693
C         -3.94280       -0.59287        0.12446
H         -5.61192        0.63788        0.73757
H         -5.43474        0.48411       -1.01172
H         -3.87939       -1.14556        1.06975
C         -2.92247        0.54669        0.12767
H         -3.70223       -1.29925       -0.67943
H         -3.16285        1.25285        0.93174
H         -2.98583        1.09915       -0.81772
C         -1.49969        0.01848        0.31802
H         -1.43635       -0.53383        1.26351
C         -0.47845        1.15725        0.32070
H         -1.25973       -0.68807       -0.48586
H         -0.71742        1.86341        1.12518
H         -0.54212        1.70998       -0.62450
C          0.94391        0.62741        0.50959
H          1.00781        0.07562        1.45534
C          1.96683        1.76464        0.51002
H          1.18179       -0.08003       -0.29415
H          1.73108        2.47096        1.31529
H          1.90160        2.31770       -0.43489
C          3.38881        1.23232        0.69493
H          3.62273        0.52368       -0.10890
H          3.45469        0.68127        1.64098
C          4.41398        2.36748        0.69089
H          4.34566        2.92074       -0.25367
C          5.83573        1.83224        0.86931
H          4.18323        3.07422        1.49725
H          6.06436        1.12272        0.06473
H          5.90498        1.28156        1.81533
C          6.86317        2.96530        0.85970
H          6.79118        3.51842       -0.08467
C          8.28485        2.42750        1.03111
H          6.63780        3.67273        1.66698
H          8.50853        1.71788        0.22523
H          8.35765        1.87640        1.97663
C          9.31395        3.55897        1.01701
H          9.23936        4.11186        0.07266
C         10.73452        3.01997        1.18369
H          9.09244        4.26742        1.82452
H         10.96184        2.31342        0.37694
H         10.81600        2.47055        2.12878
C         11.76131        4.14106        1.16839
H         11.72778        4.69089        0.22238
H         12.76978        3.73300        1.28846
H         11.58177        4.84870        1.98405
