8
	Energy:      -4.7343653
C         -4.67611        1.70164        0.00000
C         -3.16405        1.70164        0.00000
H         -5.06048        2.30322        0.82909
H         -5.06048        0.68285        0.10644
H         -5.06048        2.11886       -0.93552
H         -2.77968        1.28442        0.93552
H         -2.77968        2.72044       -0.10644
H         -2.77968        1.10007       -0.82909
