98
	Energy:     -10.8448911
C         -6.70929       -1.28858       -0.08366
C         -5.69275       -0.15803       -0.08176
H         -6.68640       -1.83836        0.86267
H         -6.50965       -1.99431       -0.89633
H         -7.71935       -0.88986       -0.22051
C         -4.27028       -0.68419        0.10782
H         -5.93961        0.54609        0.72135
H         -5.76387        0.39095       -1.02795
H         -4.20556       -1.23579        1.05366
C         -3.25087        0.45614        0.10876
H         -4.03001       -1.39126       -0.69555
H         -3.49098        1.16287        0.91242
H         -3.31591        1.00768       -0.83706
C         -1.82720       -0.07026        0.29789
H         -1.76188       -0.62126        1.24400
C         -0.80786        1.07016        0.29775
H         -1.58733       -0.77742       -0.50546
H         -1.04723        1.77698        1.10155
H         -0.87384        1.62157       -0.64808
C          0.61599        0.54385        0.48552
H          0.68244       -0.00663        1.43185
C          1.63532        1.68426        0.48346
H          0.85490       -0.16376       -0.31773
H          1.39724        2.39132        1.28745
H          1.56781        2.23541       -0.46241
C          3.05948        1.15803        0.66905
H          3.29687        0.44984       -0.13415
H          3.12764        0.60821        1.61564
C          4.07888        2.29839        0.66427
H          4.00930        2.84912       -0.28170
C          5.50339        1.77209        0.84684
H          3.84265        3.00580        1.46847
H          5.73868        1.06317        0.04367
H          5.57379        1.22306        1.79373
C          6.52301        2.91223        0.83852
H          6.45083        3.46244       -0.10756
C          7.94791        2.38564        1.01721
H          6.28929        3.62016        1.64301
H          8.18037        1.67576        0.21406
H          8.02111        1.83760        1.96445
C          8.96798        3.52534        1.00437
H          8.89253        4.07492        0.05818
C         10.39326        2.99811        1.17804
H          8.73762        4.23393        1.80924
H         10.62195        2.28697        0.37491
H         10.46998        2.45129        2.12570
C         11.41411        4.13704        1.15939
H         11.33453        4.68586        0.21309
C         12.83977        3.60875        1.32654
H         11.18819        4.84650        1.96474
H         13.06351        2.89601        0.52344
H         12.92094        3.06345        2.27472
C         13.86170        4.74656        1.30047
H         13.77694        5.29442        0.35407
C         15.28776        4.21675        1.45937
H         13.64153        5.45714        2.10642
H         15.50523        3.50208        0.65626
H         15.37447        3.67327        2.40810
C         16.31105        5.35308        1.42413
H         16.22003        5.89970        0.47759
C         17.73748        4.82138        1.57305
H         16.09792        6.06513        2.23066
H         17.94752        4.10460        0.76983
H         17.83078        4.27984        2.52226
C         18.76230        5.95595        1.52718
H         18.66425        6.50101        0.58044
C         20.18906        5.42214        1.66505
H         18.55708        6.66981        2.33417
H         20.39105        4.70332        0.86160
H         20.28953        4.88244        2.61458
C         21.21533        6.55488        1.60801
H         21.11018        7.09809        0.66097
C         22.64234        6.01901        1.73494
H         21.01813        7.27080        2.41518
H         22.83658        5.29848        0.93111
H         22.74979        5.48080        2.68455
C         23.66985        7.15005        1.66749
H         23.55840        7.69126        0.72003
C         25.09701        6.61241        1.78503
H         23.47974        7.86809        2.47447
H         25.28481        5.89073        0.98071
H         25.21030        6.07516        2.73450
C         26.12542        7.74212        1.70933
H         26.00936        8.28144        0.76135
C         27.55266        7.20329        1.82037
H         25.94049        8.46210        2.51580
H         27.73617        6.48107        1.01553
H         27.66986        6.66638        2.76958
C         28.58162        8.33212        1.73962
H         28.46321        8.87012        0.79114
C         30.00779        7.79303        1.84762
H         28.39950        9.05381        2.54526
H         30.19592        7.07326        1.04248
H         30.13318        7.25865        2.79652
C         31.03398        8.91184        1.76588
H         30.95660        9.44635        0.81370
H         32.04653        8.50395        1.84508
H         30.89371        9.63294        2.57746
