14
	Energy:      -5.0759756
C         -6.51224        1.02391        0.10964
C         -4.99198        1.02734        0.12483
H         -6.90051        1.69972        0.87805
H         -6.90432        0.02152        0.30923
H         -6.89565        1.35632       -0.86033
H         -4.64150        0.72176        1.11758
H         -4.63288        2.04903       -0.04541
C         -4.41959        0.09203       -0.93836
H         -4.77870       -0.92966       -0.76813
C         -2.89933        0.09545       -0.92317
H         -4.77007        0.39761       -1.93112
H         -2.51593       -0.23694        0.04681
H         -2.50725        1.09784       -1.12278
H         -2.51107       -0.58038       -1.69156
